<?xml version="1.0" encoding="UTF-8"?>
<fcd-export xmlns:xsi="http://www.w3.org/2001/XMLSchema-instance" xsi:noNamespaceSchemaLocation="http://sumo.dlr.de/xsd/fcd_file.xsd">
  <timestep time="0.00">
    <vehicle id="veh0" x="202.96" y="48.99" speed="8.06" angle="-74.4" type="passenger"/>
    <vehicle id="veh1" x="299.79" y="10.06" speed="10.78" angle="-97.9" type="passenger"/>
    <vehicle id="veh2" x="704.00" y="596.78" speed="9.89" angle="-0.1" type="passenger"/>
    <vehicle id="veh3" x="514.95" y="511.14" speed="11.77" angle="-76.7" type="passenger"/>
    <vehicle id="veh4" x="118.11" y="575.51" speed="16.13" angle="42.5" type="passenger"/>
    <vehicle id="veh5" x="441.11" y="104.94" speed="6.89" angle="-78.3" type="passenger"/>
    <vehicle id="veh6" x="749.67" y="497.51" speed="13.35" angle="136.3" type="passenger"/>
    <vehicle id="veh7" x="366.85" y="36.94" speed="13.41" angle="175.5" type="passenger"/>
    <vehicle id="veh8" x="666.50" y="505.53" speed="6.07" angle="-33.4" type="passenger"/>
    <vehicle id="veh9" x="471.48" y="420.90" speed="8.51" angle="46.0" type="passenger"/>
    <vehicle id="veh10" x="786.60" y="265.53" speed="14.19" angle="-142.5" type="passenger"/>
    <vehicle id="veh11" x="361.67" y="77.51" speed="7.97" angle="19.2" type="passenger"/>
    <vehicle id="veh12" x="639.74" y="230.46" speed="10.20" angle="-141.3" type="passenger"/>
    <vehicle id="veh13" x="12.94" y="172.14" speed="11.68" angle="113.4" type="passenger"/>
    <vehicle id="veh14" x="769.90" y="116.77" speed="10.65" angle="12.5" type="passenger"/>
    <vehicle id="veh15" x="264.16" y="195.32" speed="16.98" angle="127.7" type="passenger"/>
    <vehicle id="veh16" x="86.66" y="551.97" speed="8.76" angle="-12.4" type="passenger"/>
    <vehicle id="veh17" x="562.71" y="184.13" speed="10.68" angle="178.6" type="passenger"/>
    <vehicle id="veh18" x="95.36" y="148.89" speed="6.26" angle="62.2" type="passenger"/>
    <vehicle id="veh19" x="388.73" y="128.52" speed="9.38" angle="144.5" type="passenger"/>
    <vehicle id="veh20" x="708.22" y="494.93" speed="10.99" angle="59.9" type="passenger"/>
    <vehicle id="veh21" x="316.08" y="92.45" speed="10.52" angle="173.9" type="passenger"/>
    <vehicle id="veh22" x="520.30" y="596.15" speed="7.22" angle="106.7" type="passenger"/>
    <vehicle id="veh23" x="338.29" y="31.88" speed="14.94" angle="142.4" type="passenger"/>
    <vehicle id="veh24" x="778.35" y="478.23" speed="9.81" angle="-161.1" type="passenger"/>
    <vehicle id="veh25" x="231.31" y="299.73" speed="15.01" angle="50.5" type="passenger"/>
    <vehicle id="veh26" x="158.48" y="186.31" speed="6.66" angle="-82.7" type="passenger"/>
    <vehicle id="veh27" x="325.16" y="5.59" speed="5.58" angle="-42.0" type="passenger"/>
    <vehicle id="veh28" x="380.83" y="155.71" speed="6.20" angle="65.0" type="passenger"/>
    <vehicle id="veh29" x="438.48" y="360.45" speed="8.23" angle="-155.9" type="passenger"/>
  </timestep>
  <timestep time="0.50">
    <vehicle id="veh0" x="204.04" y="45.11" speed="8.06" angle="-74.4" type="passenger"/>
    <vehicle id="veh1" x="299.05" y="4.72" speed="10.78" angle="-97.9" type="passenger"/>
    <vehicle id="veh2" x="708.94" y="596.77" speed="9.89" angle="-0.1" type="passenger"/>
    <vehicle id="veh3" x="516.30" y="505.41" speed="11.77" angle="-76.7" type="passenger"/>
    <vehicle id="veh4" x="124.06" y="580.96" speed="16.13" angle="42.5" type="passenger"/>
    <vehicle id="veh5" x="441.81" y="101.56" speed="6.89" angle="-78.3" type="passenger"/>
    <vehicle id="veh6" x="744.85" y="502.12" speed="13.35" angle="136.3" type="passenger"/>
    <vehicle id="veh7" x="360.17" y="37.47" speed="13.41" angle="175.5" type="passenger"/>
    <vehicle id="veh8" x="669.03" y="503.86" speed="6.07" angle="-33.4" type="passenger"/>
    <vehicle id="veh9" x="474.44" y="423.96" speed="8.51" angle="46.0" type="passenger"/>
    <vehicle id="veh10" x="780.97" y="261.22" speed="14.19" angle="-142.5" type="passenger"/>
    <vehicle id="veh11" x="365.43" y="78.82" speed="7.97" angle="19.2" type="passenger"/>
    <vehicle id="veh12" x="635.76" y="227.26" speed="10.20" angle="-141.3" type="passenger"/>
    <vehicle id="veh13" x="10.62" y="177.50" speed="11.68" angle="113.4" type="passenger"/>
    <vehicle id="veh14" x="775.10" y="117.92" speed="10.65" angle="12.5" type="passenger"/>
    <vehicle id="veh15" x="258.97" y="202.04" speed="16.98" angle="127.7" type="passenger"/>
    <vehicle id="veh16" x="90.94" y="551.03" speed="8.76" angle="-12.4" type="passenger"/>
    <vehicle id="veh17" x="557.37" y="184.26" speed="10.68" angle="178.6" type="passenger"/>
    <vehicle id="veh18" x="96.81" y="151.66" speed="6.26" angle="62.2" type="passenger"/>
    <vehicle id="veh19" x="384.91" y="131.24" speed="9.38" angle="144.5" type="passenger"/>
    <vehicle id="veh20" x="710.98" y="499.68" speed="10.99" angle="59.9" type="passenger"/>
    <vehicle id="veh21" x="310.85" y="93.01" speed="10.52" angle="173.9" type="passenger"/>
    <vehicle id="veh22" x="519.26" y="599.61" speed="7.22" angle="106.7" type="passenger"/>
    <vehicle id="veh23" x="332.37" y="36.44" speed="14.94" angle="142.4" type="passenger"/>
    <vehicle id="veh24" x="773.71" y="476.65" speed="9.81" angle="-161.1" type="passenger"/>
    <vehicle id="veh25" x="236.08" y="305.52" speed="15.01" angle="50.5" type="passenger"/>
    <vehicle id="veh26" x="158.91" y="183.01" speed="6.66" angle="-82.7" type="passenger"/>
    <vehicle id="veh27" x="327.23" y="3.72" speed="5.58" angle="-42.0" type="passenger"/>
    <vehicle id="veh28" x="382.14" y="158.52" speed="6.20" angle="65.0" type="passenger"/>
    <vehicle id="veh29" x="434.72" y="358.77" speed="8.23" angle="-155.9" type="passenger"/>
  </timestep>
  <timestep time="1.00">
    <vehicle id="veh0" x="205.12" y="41.22" speed="8.06" angle="-74.4" type="passenger"/>
    <vehicle id="veh1" x="298.31" y="0.00" speed="10.78" angle="97.9" type="passenger"/>
    <vehicle id="veh2" x="713.89" y="596.77" speed="9.89" angle="-0.1" type="passenger"/>
    <vehicle id="veh3" x="517.65" y="499.69" speed="11.77" angle="-76.7" type="passenger"/>
    <vehicle id="veh4" x="130.00" y="586.41" speed="16.13" angle="42.5" type="passenger"/>
    <vehicle id="veh5" x="442.51" y="98.19" speed="6.89" angle="-78.3" type="passenger"/>
    <vehicle id="veh6" x="740.02" y="506.74" speed="13.35" angle="136.3" type="passenger"/>
    <vehicle id="veh7" x="353.48" y="37.99" speed="13.41" angle="175.5" type="passenger"/>
    <vehicle id="veh8" x="671.57" y="502.19" speed="6.07" angle="-33.4" type="passenger"/>
    <vehicle id="veh9" x="477.40" y="427.02" speed="8.51" angle="46.0" type="passenger"/>
    <vehicle id="veh10" x="775.34" y="256.90" speed="14.19" angle="-142.5" type="passenger"/>
    <vehicle id="veh11" x="369.19" y="80.14" speed="7.97" angle="19.2" type="passenger"/>
    <vehicle id="veh12" x="631.78" y="224.07" speed="10.20" angle="-141.3" type="passenger"/>
    <vehicle id="veh13" x="8.29" y="182.86" speed="11.68" angle="113.4" type="passenger"/>
    <vehicle id="veh14" x="780.30" y="119.08" speed="10.65" angle="12.5" type="passenger"/>
    <vehicle id="veh15" x="253.78" y="208.76" speed="16.98" angle="127.7" type="passenger"/>
    <vehicle id="veh16" x="95.22" y="550.09" speed="8.76" angle="-12.4" type="passenger"/>
    <vehicle id="veh17" x="552.03" y="184.39" speed="10.68" angle="178.6" type="passenger"/>
    <vehicle id="veh18" x="98.27" y="154.43" speed="6.26" angle="62.2" type="passenger"/>
    <vehicle id="veh19" x="381.09" y="133.96" speed="9.38" angle="144.5" type="passenger"/>
    <vehicle id="veh20" x="713.74" y="504.43" speed="10.99" angle="59.9" type="passenger"/>
    <vehicle id="veh21" x="305.62" y="93.57" speed="10.52" angle="173.9" type="passenger"/>
    <vehicle id="veh22" x="518.23" y="600.00" speed="7.22" angle="-106.7" type="passenger"/>
    <vehicle id="veh23" x="326.46" y="41.00" speed="14.94" angle="142.4" type="passenger"/>
    <vehicle id="veh24" x="769.07" y="475.06" speed="9.81" angle="-161.1" type="passenger"/>
    <vehicle id="veh25" x="240.86" y="311.31" speed="15.01" angle="50.5" type="passenger"/>
    <vehicle id="veh26" x="159.33" y="179.71" speed="6.66" angle="-82.7" type="passenger"/>
    <vehicle id="veh27" x="329.31" y="1.86" speed="5.58" angle="-42.0" type="passenger"/>
    <vehicle id="veh28" x="383.45" y="161.33" speed="6.20" angle="65.0" type="passenger"/>
    <vehicle id="veh29" x="430.97" y="357.09" speed="8.23" angle="-155.9" type="passenger"/>
  </timestep>
  <timestep time="1.50">
    <vehicle id="veh0" x="206.20" y="37.34" speed="8.06" angle="-74.4" type="passenger"/>
    <vehicle id="veh1" x="297.58" y="5.34" speed="10.78" angle="97.9" type="passenger"/>
    <vehicle id="veh2" x="718.83" y="596.76" speed="9.89" angle="-0.1" type="passenger"/>
    <vehicle id="veh3" x="519.00" y="493.96" speed="11.77" angle="-76.7" type="passenger"/>
    <vehicle id="veh4" x="135.94" y="591.86" speed="16.13" angle="42.5" type="passenger"/>
    <vehicle id="veh5" x="443.21" y="94.81" speed="6.89" angle="-78.3" type="passenger"/>
    <vehicle id="veh6" x="735.19" y="511.35" speed="13.35" angle="136.3" type="passenger"/>
    <vehicle id="veh7" x="346.80" y="38.51" speed="13.41" angle="175.5" type="passenger"/>
    <vehicle id="veh8" x="674.10" y="500.52" speed="6.07" angle="-33.4" type="passenger"/>
    <vehicle id="veh9" x="480.36" y="430.08" speed="8.51" angle="46.0" type="passenger"/>
    <vehicle id="veh10" x="769.71" y="252.58" speed="14.19" angle="-142.5" type="passenger"/>
    <vehicle id="veh11" x="372.95" y="81.45" speed="7.97" angle="19.2" type="passenger"/>
    <vehicle id="veh12" x="627.80" y="220.88" speed="10.20" angle="-141.3" type="passenger"/>
    <vehicle id="veh13" x="5.97" y="188.22" speed="11.68" angle="113.4" type="passenger"/>
    <vehicle id="veh14" x="785.50" y="120.23" speed="10.65" angle="12.5" type="passenger"/>
    <vehicle id="veh15" x="248.59" y="215.47" speed="16.98" angle="127.7" type="passenger"/>
    <vehicle id="veh16" x="99.50" y="549.15" speed="8.76" angle="-12.4" type="passenger"/>
    <vehicle id="veh17" x="546.69" y="184.52" speed="10.68" angle="178.6" type="passenger"/>
    <vehicle id="veh18" x="99.73" y="157.20" speed="6.26" angle="62.2" type="passenger"/>
    <vehicle id="veh19" x="377.27" y="136.68" speed="9.38" angle="144.5" type="passenger"/>
    <vehicle id="veh20" x="716.50" y="509.19" speed="10.99" angle="59.9" type="passenger"/>
    <vehicle id="veh21" x="300.38" y="94.12" speed="10.52" angle="173.9" type="passenger"/>
    <vehicle id="veh22" x="517.19" y="596.54" speed="7.22" angle="-106.7" type="passenger"/>
    <vehicle id="veh23" x="320.54" y="45.56" speed="14.94" angle="142.4" type="passenger"/>
    <vehicle id="veh24" x="764.43" y="473.47" speed="9.81" angle="-161.1" type="passenger"/>
    <vehicle id="veh25" x="245.63" y="317.10" speed="15.01" angle="50.5" type="passenger"/>
    <vehicle id="veh26" x="159.75" y="176.41" speed="6.66" angle="-82.7" type="passenger"/>
    <vehicle id="veh27" x="331.38" y="0.00" speed="5.58" angle="42.0" type="passenger"/>
    <vehicle id="veh28" x="384.76" y="164.14" speed="6.20" angle="65.0" type="passenger"/>
    <vehicle id="veh29" x="427.22" y="355.41" speed="8.23" angle="-155.9" type="passenger"/>
  </timestep>
  <timestep time="2.00">
    <vehicle id="veh0" x="207.29" y="33.45" speed="8.06" angle="-74.4" type="passenger"/>
    <vehicle id="veh1" x="296.84" y="10.68" speed="10.78" angle="97.9" type="passenger"/>
    <vehicle id="veh2" x="723.78" y="596.76" speed="9.89" angle="-0.1" type="passenger"/>
    <vehicle id="veh3" x="520.35" y="488.23" speed="11.77" angle="-76.7" type="passenger"/>
    <vehicle id="veh4" x="141.89" y="597.32" speed="16.13" angle="42.5" type="passenger"/>
    <vehicle id="veh5" x="443.91" y="91.44" speed="6.89" angle="-78.3" type="passenger"/>
    <vehicle id="veh6" x="730.37" y="515.96" speed="13.35" angle="136.3" type="passenger"/>
    <vehicle id="veh7" x="340.11" y="39.03" speed="13.41" angle="175.5" type="passenger"/>
    <vehicle id="veh8" x="676.63" y="498.85" speed="6.07" angle="-33.4" type="passenger"/>
    <vehicle id="veh9" x="483.32" y="433.14" speed="8.51" angle="46.0" type="passenger"/>
    <vehicle id="veh10" x="764.08" y="248.26" speed="14.19" angle="-142.5" type="passenger"/>
    <vehicle id="veh11" x="376.72" y="82.76" speed="7.97" angle="19.2" type="passenger"/>
    <vehicle id="veh12" x="623.82" y="217.69" speed="10.20" angle="-141.3" type="passenger"/>
    <vehicle id="veh13" x="3.65" y="193.58" speed="11.68" angle="113.4" type="passenger"/>
    <vehicle id="veh14" x="790.69" y="121.38" speed="10.65" angle="12.5" type="passenger"/>
    <vehicle id="veh15" x="243.40" y="222.19" speed="16.98" angle="127.7" type="passenger"/>
    <vehicle id="veh16" x="103.78" y="548.22" speed="8.76" angle="-12.4" type="passenger"/>
    <vehicle id="veh17" x="541.35" y="184.65" speed="10.68" angle="178.6" type="passenger"/>
    <vehicle id="veh18" x="101.19" y="159.97" speed="6.26" angle="62.2" type="passenger"/>
    <vehicle id="veh19" x="373.45" y="139.40" speed="9.38" angle="144.5" type="passenger"/>
    <vehicle id="veh20" x="719.26" y="513.94" speed="10.99" angle="59.9" type="passenger"/>
    <vehicle id="veh21" x="295.15" y="94.68" speed="10.52" angle="173.9" type="passenger"/>
    <vehicle id="veh22" x="516.16" y="593.08" speed="7.22" angle="-106.7" type="passenger"/>
    <vehicle id="veh23" x="314.62" y="50.12" speed="14.94" angle="142.4" type="passenger"/>
    <vehicle id="veh24" x="759.79" y="471.88" speed="9.81" angle="-161.1" type="passenger"/>
    <vehicle id="veh25" x="250.41" y="322.90" speed="15.01" angle="50.5" type="passenger"/>
    <vehicle id="veh26" x="160.17" y="173.10" speed="6.66" angle="-82.7" type="passenger"/>
    <vehicle id="veh27" x="333.45" y="1.87" speed="5.58" angle="42.0" type="passenger"/>
    <vehicle id="veh28" x="386.07" y="166.95" speed="6.20" angle="65.0" type="passenger"/>
    <vehicle id="veh29" x="423.46" y="353.72" speed="8.23" angle="-155.9" type="passenger"/>
  </timestep>
  <timestep time="2.50">
    <vehicle id="veh0" x="208.37" y="29.57" speed="8.06" angle="-74.4" type="passenger"/>
    <vehicle id="veh1" x="296.10" y="16.02" speed="10.78" angle="97.9" type="passenger"/>
    <vehicle id="veh2" x="728.72" y="596.75" speed="9.89" angle="-0.1" type="passenger"/>
    <vehicle id="veh3" x="521.70" y="482.50" speed="11.77" angle="-76.7" type="passenger"/>
    <vehicle id="veh4" x="147.83" y="600.00" speed="16.13" angle="-42.5" type="passenger"/>
    <vehicle id="veh5" x="444.61" y="88.06" speed="6.89" angle="-78.3" type="passenger"/>
    <vehicle id="veh6" x="725.54" y="520.57" speed="13.35" angle="136.3" type="passenger"/>
    <vehicle id="veh7" x="333.42" y="39.56" speed="13.41" angle="175.5" type="passenger"/>
    <vehicle id="veh8" x="679.17" y="497.18" speed="6.07" angle="-33.4" type="passenger"/>
    <vehicle id="veh9" x="486.28" y="436.20" speed="8.51" angle="46.0" type="passenger"/>
    <vehicle id="veh10" x="758.46" y="243.95" speed="14.19" angle="-142.5" type="passenger"/>
    <vehicle id="veh11" x="380.48" y="84.07" speed="7.97" angle="19.2" type="passenger"/>
    <vehicle id="veh12" x="619.84" y="214.50" speed="10.20" angle="-141.3" type="passenger"/>
    <vehicle id="veh13" x="1.32" y="198.94" speed="11.68" angle="113.4" type="passenger"/>
    <vehicle id="veh14" x="795.89" y="122.53" speed="10.65" angle="12.5" type="passenger"/>
    <vehicle id="veh15" x="238.21" y="228.91" speed="16.98" angle="127.7" type="passenger"/>
    <vehicle id="veh16" x="108.06" y="547.28" speed="8.76" angle="-12.4" type="passenger"/>
    <vehicle id="veh17" x="536.01" y="184.77" speed="10.68" angle="178.6" type="passenger"/>
    <vehicle id="veh18" x="102.64" y="162.74" speed="6.26" angle="62.2" type="passenger"/>
    <vehicle id="veh19" x="369.64" y="142.12" speed="9.38" angle="144.5" type="passenger"/>
    <vehicle id="veh20" x="722.02" y="518.69" speed="10.99" angle="59.9" type="passenger"/>
    <vehicle id="veh21" x="289.92" y="95.24" speed="10.52" angle="173.9" type="passenger"/>
    <vehicle id="veh22" x="515.12" y="589.62" speed="7.22" angle="-106.7" type="passenger"/>
    <vehicle id="veh23" x="308.70" y="54.68" speed="14.94" angle="142.4" type="passenger"/>
    <vehicle id="veh24" x="755.15" y="470.30" speed="9.81" angle="-161.1" type="passenger"/>
    <vehicle id="veh25" x="255.18" y="328.69" speed="15.01" angle="50.5" type="passenger"/>
    <vehicle id="veh26" x="160.59" y="169.80" speed="6.66" angle="-82.7" type="passenger"/>
    <vehicle id="veh27" x="335.52" y="3.73" speed="5.58" angle="42.0" type="passenger"/>
    <vehicle id="veh28" x="387.38" y="169.76" speed="6.20" angle="65.0" type="passenger"/>
    <vehicle id="veh29" x="419.71" y="352.04" speed="8.23" angle="-155.9" type="passenger"/>
  </timestep>
  <timestep time="3.00">
    <vehicle id="veh0" x="209.45" y="25.69" speed="8.06" angle="-74.4" type="passenger"/>
    <vehicle id="veh1" x="295.36" y="21.37" speed="10.78" angle="97.9" type="passenger"/>
    <vehicle id="veh2" x="733.66" y="596.75" speed="9.89" angle="-0.1" type="passenger"/>
    <vehicle id="veh3" x="523.05" y="476.77" speed="11.77" angle="-76.7" type="passenger"/>
    <vehicle id="veh4" x="153.77" y="594.55" speed="16.13" angle="-42.5" type="passenger"/>
    <vehicle id="veh5" x="445.32" y="84.69" speed="6.89" angle="-78.3" type="passenger"/>
    <vehicle id="veh6" x="720.72" y="525.18" speed="13.35" angle="136.3" type="passenger"/>
    <vehicle id="veh7" x="326.74" y="40.08" speed="13.41" angle="175.5" type="passenger"/>
    <vehicle id="veh8" x="681.70" y="495.51" speed="6.07" angle="-33.4" type="passenger"/>
    <vehicle id="veh9" x="489.24" y="439.26" speed="8.51" angle="46.0" type="passenger"/>
    <vehicle id="veh10" x="752.83" y="239.63" speed="14.19" angle="-142.5" type="passenger"/>
    <vehicle id="veh11" x="384.24" y="85.39" speed="7.97" angle="19.2" type="passenger"/>
    <vehicle id="veh12" x="615.86" y="211.31" speed="10.20" angle="-141.3" type="passenger"/>
    <vehicle id="veh13" x="0.00" y="204.30" speed="11.68" angle="66.6" type="passenger"/>
    <vehicle id="veh14" x="800.00" y="123.69" speed="10.65" angle="167.5" type="passenger"/>
    <vehicle id="veh15" x="233.02" y="235.63" speed="16.98" angle="127.7" type="passenger"/>
    <vehicle id="veh16" x="112.34" y="546.34" speed="8.76" angle="-12.4" type="passenger"/>
    <vehicle id="veh17" x="530.67" y="184.90" speed="10.68" angle="178.6" type="passenger"/>
    <vehicle id="veh18" x="104.10" y="165.50" speed="6.26" angle="62.2" type="passenger"/>
    <vehicle id="veh19" x="365.82" y="144.84" speed="9.38" angle="144.5" type="passenger"/>
    <vehicle id="veh20" x="724.78" y="523.44" speed="10.99" angle="59.9" type="passenger"/>
    <vehicle id="veh21" x="284.69" y="95.80" speed="10.52" angle="173.9" type="passenger"/>
    <vehicle id="veh22" x="514.08" y="586.17" speed="7.22" angle="-106.7" type="passenger"/>
    <vehicle id="veh23" x="302.78" y="59.24" speed="14.94" angle="142.4" type="passenger"/>
    <vehicle id="veh24" x="750.51" y="468.71" speed="9.81" angle="-161.1" type="passenger"/>
    <vehicle id="veh25" x="259.95" y="334.48" speed="15.01" angle="50.5" type="passenger"/>
    <vehicle id="veh26" x="161.01" y="166.50" speed="6.66" angle="-82.7" type="passenger"/>
    <vehicle id="veh27" x="337.59" y="5.60" speed="5.58" angle="42.0" type="passenger"/>
    <vehicle id="veh28" x="388.69" y="172.57" speed="6.20" angle="65.0" type="passenger"/>
    <vehicle id="veh29" x="415.95" y="350.36" speed="8.23" angle="-155.9" type="passenger"/>
  </timestep>
  <timestep time="3.50">
    <vehicle id="veh0" x="210.53" y="21.80" speed="8.06" angle="-74.4" type="passenger"/>
    <vehicle id="veh1" x="294.62" y="26.71" speed="10.78" angle="97.9" type="passenger"/>
    <vehicle id="veh2" x="738.61" y="596.74" speed="9.89" angle="-0.1" type="passenger"/>
    <vehicle id="veh3" x="524.41" y="471.04" speed="11.77" angle="-76.7" type="passenger"/>
    <vehicle id="veh4" x="159.72" y="589.09" speed="16.13" angle="-42.5" type="passenger"/>
    <vehicle id="veh5" x="446.02" y="81.31" speed="6.89" angle="-78.3" type="passenger"/>
    <vehicle id="veh6" x="715.89" y="529.79" speed="13.35" angle="136.3" type="passenger"/>
    <vehicle id="veh7" x="320.05" y="40.60" speed="13.41" angle="175.5" type="passenger"/>
    <vehicle id="veh8" x="684.23" y="493.84" speed="6.07" angle="-33.4" type="passenger"/>
    <vehicle id="veh9" x="492.20" y="442.32" speed="8.51" angle="46.0" type="passenger"/>
    <vehicle id="veh10" x="747.20" y="235.31" speed="14.19" angle="-142.5" type="passenger"/>
    <vehicle id="veh11" x="388.00" y="86.70" speed="7.97" angle="19.2" type="passenger"/>
    <vehicle id="veh12" x="611.88" y="208.12" speed="10.20" angle="-141.3" type="passenger"/>
    <vehicle id="veh13" x="2.32" y="209.66" speed="11.68" angle="66.6" type="passenger"/>
    <vehicle id="veh14" x="794.80" y="124.84" speed="10.65" angle="167.5" type="passenger"/>
    <vehicle id="veh15" x="227.83" y="242.35" speed="16.98" angle="127.7" type="passenger"/>
    <vehicle id="veh16" x="116.62" y="545.40" speed="8.76" angle="-12.4" type="passenger"/>
    <vehicle id="veh17" x="525.33" y="185.03" speed="10.68" angle="178.6" type="passenger"/>
    <vehicle id="veh18" x="105.56" y="168.27" speed="6.26" angle="62.2" type="passenger"/>
    <vehicle id="veh19" x="362.00" y="147.56" speed="9.38" angle="144.5" type="passenger"/>
    <vehicle id="veh20" x="727.54" y="528.20" speed="10.99" angle="59.9" type="passenger"/>
    <vehicle id="veh21" x="279.46" y="96.35" speed="10.52" angle="173.9" type="passenger"/>
    <vehicle id="veh22" x="513.05" y="582.71" speed="7.22" angle="-106.7" type="passenger"/>
    <vehicle id="veh23" x="296.86" y="63.80" speed="14.94" angle="142.4" type="passenger"/>
    <vehicle id="veh24" x="745.87" y="467.12" speed="9.81" angle="-161.1" type="passenger"/>
    <vehicle id="veh25" x="264.73" y="340.28" speed="15.01" angle="50.5" type="passenger"/>
    <vehicle id="veh26" x="161.43" y="163.20" speed="6.66" angle="-82.7" type="passenger"/>
    <vehicle id="veh27" x="339.66" y="7.47" speed="5.58" angle="42.0" type="passenger"/>
    <vehicle id="veh28" x="389.99" y="175.38" speed="6.20" angle="65.0" type="passenger"/>
    <vehicle id="veh29" x="412.20" y="348.68" speed="8.23" angle="-155.9" type="passenger"/>
  </timestep>
  <timestep time="4.00">
    <vehicle id="veh0" x="211.61" y="17.92" speed="8.06" angle="-74.4" type="passenger"/>
    <vehicle id="veh1" x="293.89" y="32.05" speed="10.78" angle="97.9" type="passenger"/>
    <vehicle id="veh2" x="743.55" y="596.74" speed="9.89" angle="-0.1" type="passenger"/>
    <vehicle id="veh3" x="525.76" y="465.31" speed="11.77" angle="-76.7" type="passenger"/>
    <vehicle id="veh4" x="165.66" y="583.64" speed="16.13" angle="-42.5" type="passenger"/>
    <vehicle id="veh5" x="446.72" y="77.94" speed="6.89" angle="-78.3" type="passenger"/>
    <vehicle id="veh6" x="711.06" y="534.40" speed="13.35" angle="136.3" type="passenger"/>
    <vehicle id="veh7" x="313.37" y="41.12" speed="13.41" angle="175.5" type="passenger"/>
    <vehicle id="veh8" x="686.76" y="492.17" speed="6.07" angle="-33.4" type="passenger"/>
    <vehicle id="veh9" x="495.16" y="445.38" speed="8.51" angle="46.0" type="passenger"/>
    <vehicle id="veh10" x="741.57" y="230.99" speed="14.19" angle="-142.5" type="passenger"/>
    <vehicle id="veh11" x="391.77" y="88.01" speed="7.97" angle="19.2" type="passenger"/>
    <vehicle id="veh12" x="607.90" y="204.93" speed="10.20" angle="-141.3" type="passenger"/>
    <vehicle id="veh13" x="4.65" y="215.02" speed="11.68" angle="66.6" type="passenger"/>
    <vehicle id="veh14" x="789.60" y="125.99" speed="10.65" angle="167.5" type="passenger"/>
    <vehicle id="veh15" x="222.64" y="249.07" speed="16.98" angle="127.7" type="passenger"/>
    <vehicle id="veh16" x="120.90" y="544.46" speed="8.76" angle="-12.4" type="passenger"/>
    <vehicle id="veh17" x="519.99" y="185.16" speed="10.68" angle="178.6" type="passenger"/>
    <vehicle id="veh18" x="107.02" y="171.04" speed="6.26" angle="62.2" type="passenger"/>
    <vehicle id="veh19" x="358.18" y="150.28" speed="9.38" angle="144.5" type="passenger"/>
    <vehicle id="veh20" x="730.30" y="532.95" speed="10.99" angle="59.9" type="passenger"/>
    <vehicle id="veh21" x="274.23" y="96.91" speed="10.52" angle="173.9" type="passenger"/>
    <vehicle id="veh22" x="512.01" y="579.25" speed="7.22" angle="-106.7" type="passenger"/>
    <vehicle id="veh23" x="290.95" y="68.37" speed="14.94" angle="142.4" type="passenger"/>
    <vehicle id="veh24" x="741.24" y="465.53" speed="9.81" angle="-161.1" type="passenger"/>
    <vehicle id="veh25" x="269.50" y="346.07" speed="15.01" angle="50.5" type="passenger"/>
    <vehicle id="veh26" x="161.85" y="159.89" speed="6.66" angle="-82.7" type="passenger"/>
    <vehicle id="veh27" x="341.74" y="9.33" speed="5.58" angle="42.0" type="passenger"/>
    <vehicle id="veh28" x="391.30" y="178.19" speed="6.20" angle="65.0" type="passenger"/>
    <vehicle id="veh29" x="408.45" y="346.99" speed="8.23" angle="-155.9" type="passenger"/>
  </timestep>
  <timestep time="4.50">
    <vehicle id="veh0" x="212.70" y="14.03" speed="8.06" angle="-74.4" type="passenger"/>
    <vehicle id="veh1" x="293.15" y="37.39" speed="10.78" angle="97.9" type="passenger"/>
    <vehicle id="veh2" x="748.50" y="596.74" speed="9.89" angle="-0.1" type="passenger"/>
    <vehicle id="veh3" x="527.11" y="459.58" speed="11.77" angle="-76.7" type="passenger"/>
    <vehicle id="veh4" x="171.61" y="578.19" speed="16.13" angle="-42.5" type="passenger"/>
    <vehicle id="veh5" x="447.42" y="74.57" speed="6.89" angle="-78.3" type="passenger"/>
    <vehicle id="veh6" x="706.24" y="539.02" speed="13.35" angle="136.3" type="passenger"/>
    <vehicle id="veh7" x="306.68" y="41.64" speed="13.41" angle="175.5" type="passenger"/>
    <vehicle id="veh8" x="689.30" y="490.51" speed="6.07" angle="-33.4" type="passenger"/>
    <vehicle id="veh9" x="498.12" y="448.44" speed="8.51" angle="46.0" type="passenger"/>
    <vehicle id="veh10" x="735.94" y="226.67" speed="14.19" angle="-142.5" type="passenger"/>
    <vehicle id="veh11" x="395.53" y="89.32" speed="7.97" angle="19.2" type="passenger"/>
    <vehicle id="veh12" x="603.92" y="201.74" speed="10.20" angle="-141.3" type="passenger"/>
    <vehicle id="veh13" x="6.97" y="220.38" speed="11.68" angle="66.6" type="passenger"/>
    <vehicle id="veh14" x="784.41" y="127.14" speed="10.65" angle="167.5" type="passenger"/>
    <vehicle id="veh15" x="217.46" y="255.79" speed="16.98" angle="127.7" type="passenger"/>
    <vehicle id="veh16" x="125.18" y="543.52" speed="8.76" angle="-12.4" type="passenger"/>
    <vehicle id="veh17" x="514.65" y="185.29" speed="10.68" angle="178.6" type="passenger"/>
    <vehicle id="veh18" x="108.47" y="173.81" speed="6.26" angle="62.2" type="passenger"/>
    <vehicle id="veh19" x="354.37" y="153.00" speed="9.38" angle="144.5" type="passenger"/>
    <vehicle id="veh20" x="733.06" y="537.70" speed="10.99" angle="59.9" type="passenger"/>
    <vehicle id="veh21" x="268.99" y="97.47" speed="10.52" angle="173.9" type="passenger"/>
    <vehicle id="veh22" x="510.97" y="575.79" speed="7.22" angle="-106.7" type="passenger"/>
    <vehicle id="veh23" x="285.03" y="72.93" speed="14.94" angle="142.4" type="passenger"/>
    <vehicle id="veh24" x="736.60" y="463.94" speed="9.81" angle="-161.1" type="passenger"/>
    <vehicle id="veh25" x="274.27" y="351.86" speed="15.01" angle="50.5" type="passenger"/>
    <vehicle id="veh26" x="162.27" y="156.59" speed="6.66" angle="-82.7" type="passenger"/>
    <vehicle id="veh27" x="343.81" y="11.20" speed="5.58" angle="42.0" type="passenger"/>
    <vehicle id="veh28" x="392.61" y="181.00" speed="6.20" angle="65.0" type="passenger"/>
    <vehicle id="veh29" x="404.69" y="345.31" speed="8.23" angle="-155.9" type="passenger"/>
  </timestep>
  <timestep time="5.00">
    <vehicle id="veh0" x="213.78" y="10.15" speed="8.06" angle="-74.4" type="passenger"/>
    <vehicle id="veh1" x="292.41" y="42.73" speed="10.78" angle="97.9" type="passenger"/>
    <vehicle id="veh2" x="753.44" y="596.73" speed="9.89" angle="-0.1" type="passenger"/>
    <vehicle id="veh3" x="528.46" y="453.85" speed="11.77" angle="-76.7" type="passenger"/>
    <vehicle id="veh4" x="177.55" y="572.74" speed="16.13" angle="-42.5" type="passenger"/>
    <vehicle id="veh5" x="448.12" y="71.19" speed="6.89" angle="-78.3" type="passenger"/>
    <vehicle id="veh6" x="701.41" y="543.63" speed="13.35" angle="136.3" type="passenger"/>
    <vehicle id="veh7" x="300.00" y="42.17" speed="13.41" angle="175.5" type="passenger"/>
    <vehicle id="veh8" x="691.83" y="488.84" speed="6.07" angle="-33.4" type="passenger"/>
    <vehicle id="veh9" x="501.08" y="451.51" speed="8.51" angle="46.0" type="passenger"/>
    <vehicle id="veh10" x="730.31" y="222.36" speed="14.19" angle="-142.5" type="passenger"/>
    <vehicle id="veh11" x="399.29" y="90.63" speed="7.97" angle="19.2" type="passenger"/>
    <vehicle id="veh12" x="599.94" y="198.54" speed="10.20" angle="-141.3" type="passenger"/>
    <vehicle id="veh13" x="9.30" y="225.74" speed="11.68" angle="66.6" type="passenger"/>
    <vehicle id="veh14" x="779.21" y="128.30" speed="10.65" angle="167.5" type="passenger"/>
    <vehicle id="veh15" x="212.27" y="262.51" speed="16.98" angle="127.7" type="passenger"/>
    <vehicle id="veh16" x="129.46" y="542.58" speed="8.76" angle="-12.4" type="passenger"/>
    <vehicle id="veh17" x="509.31" y="185.42" speed="10.68" angle="178.6" type="passenger"/>
    <vehicle id="veh18" x="109.93" y="176.58" speed="6.26" angle="62.2" type="passenger"/>
    <vehicle id="veh19" x="350.55" y="155.72" speed="9.38" angle="144.5" type="passenger"/>
    <vehicle id="veh20" x="735.82" y="542.46" speed="10.99" angle="59.9" type="passenger"/>